75
Lattice="10.0 0.0 0.0 0.0 10.0 0.0 0.0 0.0 10.0" Properties=species:S:1:pos:R:3:momenta:R:3:forces:R:3 config_type=relaxed energy=-615.5909247655036 step=0 pbc="T T T"
C        6.33407972       3.68230512       1.81495865      -1.24586417      -0.31496624       0.04436165       0.01970496       0.00622703       0.01142042
C       -1.03234188       1.76871499       5.11446542       0.41503614      -0.86117346       0.41447202      -0.03119717      -0.01973493      -0.00014374
C        5.83569547       5.00605426       8.50217861      -0.82699182       0.73339303      -0.27504058      -0.01406461       0.01319692      -0.02517811
C        4.66691973       4.60552725       8.31217402       0.37588271       0.43035307      -1.39955917      -0.02324044       0.02352697      -0.00845424
C        4.00318933       3.16214349       3.64855348      -1.30115550       0.65377049       0.95164086      -0.02022481      -0.00919233      -0.01351403
C        7.82218957       1.00090029       4.69516086      -1.20946452       0.08248392      -0.64294496      -0.00970953      -0.02204014       0.01686763
C        0.31326565       7.08651150       2.24067260      -0.59522440       0.21574162       1.11193782      -0.00584301       0.04061937      -0.00762747
C        9.66751477       1.07810026       0.18128181      -0.72613983      -0.89492212      -0.19456955      -0.01691147       0.01408230       0.00758601
C        0.37973927       3.85593972       1.57521480      -0.27580466       0.90976249      -0.98035036       0.00134194       0.06729323       0.02227552
C        1.75489501       6.52862551       6.06145418      -0.27274632      -0.24514502       0.55128962      -0.01358020       0.00066964      -0.00845712
C        1.70161737       9.02736809       1.29748648       0.00028960       0.55307364       0.90504697      -0.00322278       0.03490926      -0.02226592
C        1.19085268       2.78997688       1.24157431      -1.77629599       0.52670671      -2.36401943       0.01829052       0.02316844      -0.02731956
C        7.98434588       9.58479574       5.02796232       0.86803958      -0.37719709      -1.09152483      -0.00511813      -0.01860437       0.01121134
C        8.54319620       9.44085730       8.56271519      -0.58990781       0.39657840       0.91544558      -0.01856615      -0.01277327       0.00102242
C        2.63431351       9.73908373       0.49818965       0.11787874      -0.05002964      -0.84595475      -0.02998924       0.01913200      -0.00622070
C        1.53047291       1.69244522       5.28376521       0.19523369       0.32035613      -0.28313489      -0.03154572      -0.02118273      -0.01069496
C        0.60147137       7.18331026       6.05769647       0.34071094      -1.18859922       0.85905327       0.03636875       0.00287350       0.00603594
C        3.53625090       4.27229673       3.92932432       0.45231271       1.09311460      -0.17275576       0.00843934      -0.04335823      -0.01781320
C       -1.01874782       7.59421849       9.51742622      -0.25722335      -0.39808102      -0.66026370      -0.00160765       0.00824746       0.01072998
C        3.93656426       0.97461207       4.54058883       1.36289057      -0.24328018      -0.50047366      -0.00897842      -0.02254727       0.01159855
C        3.30844617       8.93964098       6.85989257       0.89652127      -0.44388776      -0.10161642       0.03130557      -0.02683693       0.00526482
C        3.69051598       2.57783556       0.73855737      -1.27016622      -0.48767808      -1.54901394       0.03242652       0.00276443      -0.01006765
C        4.87838572       1.85994851       0.63421109      -0.39980469      -0.35156585       0.23768934       0.01960790       0.00056893       0.02121012
C        4.79408752       0.65647536      -0.10591966       1.09328919       0.97605106      -0.60915375       0.00384844       0.00979585       0.02428946
C        7.07733124       5.80315706       3.24198068      -0.17393880      -0.04290777       1.00093253       0.01710598      -0.00217585       0.01274758
C        5.81538552       8.76179646       2.46647284       0.10857883       0.52591391      -0.59265699       0.01612944       0.00097002       0.02060215
C        7.57833740       8.44211059       4.36006389       0.46876830      -0.43624116       0.25014608       0.00434460      -0.02189696       0.01761201
C        9.32487603       9.76696653       9.82758471      -0.30568459      -0.03794453       0.00433530      -0.00015402       0.01575043      -0.00532127
C        0.73612916       1.45289369       1.06380943      -0.34874668       0.57096374       1.18515896      -0.01831361       0.02495318      -0.00619257
C       -0.32937207       8.50801259      10.34452048      -0.52084345       0.38336865      -0.32130271      -0.01354146       0.01791646       0.00654565
C        0.59150317       8.08075469       1.41849454      -0.16566008      -0.45871072      -0.60863678      -0.01725032       0.01618928       0.00991809
C        0.72681457       6.27578039       8.34394181       0.05524960      -0.64789214      -0.13100693      -0.00761685      -0.00208423      -0.01305230
C        5.90381191       1.79636172       3.05900749      -0.39789608       0.30997391       0.35580795      -0.00017923      -0.00508308       0.01426132
C        5.70007743       9.56611178       0.06184995      -0.70959057      -1.77168069       0.06188474       0.01971947      -0.02299282       0.03088744
C        7.73922348       8.20279454       9.05002651      -0.02799449      -0.35521935       0.71841604       0.00248183       0.00597595      -0.00355162
C        2.70000894       1.32521153       5.12482810      -0.17165373      -0.44168073      -1.17458201       0.00684610      -0.02693097      -0.00625189
C        5.99027132       6.64215589       3.77284939       0.28804908       0.91863139      -0.80855194       0.01990963      -0.01563846       0.01866434
C        9.22188627       2.07462328       9.31543437       0.53699689      -0.03353804       0.46693111      -0.03227465       0.02828473       0.01574891
C        3.65759009       5.49276739       4.46595523      -0.23650432       0.06687776      -0.66087838       0.01237438      -0.01708565       0.00220479
C        2.97647800       6.35107078       5.38408263      -0.57704501      -0.33888438      -0.15491821       0.01295069      -0.01065152      -0.02264453
C        1.67078937       0.40219181       1.24717133      -0.03777336       0.61518386      -0.31477219      -0.00379790       0.01172656      -0.00670253
C        6.99485086       5.82142219       8.58602518       0.53180155       0.34674960       1.09049785      -0.01579396       0.02239251      -0.01078358
C        3.96250785       8.71516726       5.59040087       0.36632804      -0.55618742       0.61465307       0.01172058      -0.02530850       0.00208379
C        4.73815445       6.47276693       4.30212424      -0.77425592       1.07218221       0.16371473       0.00886533      -0.02177860       0.00108808
C        8.38563461       6.30668320       3.55525280       0.83599258       0.47292063      -0.00941594       0.01312666      -0.00865768       0.02034654
C        8.46356159       5.50036326       8.40968276       0.22048494      -0.67085394       0.28522475      -0.01167611       0.01729570      -0.00684981
C        5.88021136       2.37171647       1.64856361       0.77164609      -0.20946044       0.98665215       0.01529865       0.00988816       0.01807675
C        8.54367992       7.39456288       4.50282908      -1.24655616      -0.12257008       0.20833676       0.01511672      -0.00934562       0.00945147
C        0.19267717       1.85305924       5.25122125      -0.10508483       0.21976680      -0.19089096       0.00233605      -0.01851061      -0.00809468
C        6.78773018       4.68006474       2.43068566      -0.08391517       0.09705399      -0.62708516       0.02705533       0.00812700       0.01027158
C        4.57526985       1.94012939       3.72118100       0.14831513      -1.29856049      -0.28794257      -0.00920011      -0.02755861       0.00880656
C        9.35375943       4.39707232       8.27301382       0.85853579      -0.45603593       0.61016871      -0.01990087       0.00959412      -0.00924619
C        6.95422706       1.46710556       3.78881682       0.59291561      -0.04603803      -0.37226327      -0.02421821      -0.00804650      -0.00608190
C        3.52511214       9.95924909       9.42341066      -0.05205728      -0.63557400       1.06288545       0.00458733       0.02052507      -0.01477736
C        4.41087485       9.65508767       4.62817092       0.26337910      -0.05790957       0.12190905       0.01945554      -0.01925857       0.01378023
C        6.41828473       8.30358754      -0.25243717       0.52939553       0.34508222      -0.42256666      -0.00938297       0.01115432       0.01265308
C        2.55822866       2.94662185       1.05854097       1.02298489       0.97371744       0.04755903      -0.01753417       0.01421769      -0.06494267
C        9.11631222       3.09257650       8.63833605      -0.94669864      -0.84271828       0.22550319      -0.05329291       0.00496224       0.01818031
C        8.89807146       9.48244892       7.29785464       0.35411229      -0.98840807       0.18775863      -0.00544042      -0.00353848       0.01254462
C        2.09177555       4.35179186       8.08169382      -0.79408731      -0.39658702      -0.18511978      -0.03093296      -0.00782980      -0.01464164
C        2.35676280       8.31815396       7.63178496      -0.40658310       1.03151358      -0.20567173       0.03345651      -0.01733568       0.01240301
C        3.96313435       7.36640580       5.20610570       0.98608245       0.36493281       1.38147240       0.00552903      -0.01993161      -0.01057723
C        3.23143937       9.24556743       8.24907926       0.15646147       0.66379529       1.17001097       0.01161651      -0.00567377      -0.00133238
C       -0.61560802       6.56291301       8.73713585      -1.26574432       0.04532168       1.11498981       0.00050167       0.00360899       0.00315084
C       -0.15855506       4.82287894       2.09819120      -0.46006218      -0.11109020      -0.14375261       0.01163524      -0.01135878      -0.03766136
C        0.79460595       4.88967169       8.20101962       0.71753049       0.08999168       0.24110219      -0.01978885      -0.02213474      -0.00984749
C        5.25673117       9.10561303       3.62242996       0.55868608      -0.11430389      -0.00007312       0.02017823      -0.00165292       0.00575457
C        6.73391834       7.20206700       8.75535801       0.94586213       0.24867123      -0.28643671      -0.00504818       0.02324617      -0.00392828
C        6.34903906       8.08956256       3.69181660       0.23116516      -0.62153343       0.50792229       0.00600804      -0.01474807       0.00491624
C        3.34327653       4.37770864       8.12548873       0.14670748      -0.30016396      -0.23599878      -0.02077607       0.01273579      -0.00788394
C        8.93954182       9.08743511       6.02262592       0.10604323       1.09664861      -0.36723347       0.00774473      -0.00091665       0.00706174
C        6.04210220       8.79835914       1.09984175      -0.19007786      -0.06108226      -0.12040523       0.02835175       0.00963164      -0.01361979
C        9.46749204       7.78216841       5.51359205       1.59452747       0.67386086       0.04731749       0.01012288       0.00651734       0.00412105
C        1.44214015       7.21003467       7.40638525       0.59216699      -0.80622977      -0.37954198       0.02033575      -0.01629161      -0.00943659
C        9.53753282       6.06158560       2.66806589       0.31479901       0.47324090       0.19684887      -0.00865254       0.01215761       0.00209387
