75
Lattice="10.0 0.0 0.0 0.0 10.0 0.0 0.0 0.0 10.0" Properties=species:S:1:pos:R:3:momenta:R:3:forces:R:3:magmoms:R:1 energy=-611.7246056135864 pbc="T T T"
C        6.10759233       3.70108142       1.83995782      -1.24586417      -0.31496624       0.04436165       0.81302754       1.27991871       0.61964070       0.00000000
C       -0.96811048       1.82197174       5.11279711       0.41503614      -0.86117346       0.41447202      -0.26492467       0.23401730       0.01906661       0.00000000
C        5.84677327       5.00987380       8.63811714      -0.82699182       0.73339303      -0.27504058       0.85260497      -0.26724017       0.09981943       0.00000000
C        4.71354510       4.52396415       8.47816803       0.37588271       0.43035307      -1.39955917       1.57966937       0.64158785      -0.02677473       0.00000000
C        4.01374432       3.21605680       3.71346308      -1.30115550       0.65377049       0.95164086      -0.97169143       2.85166784      -0.28748957       0.00000000
C        7.90542776       1.06470351       4.69171335      -1.20946452       0.08248392      -0.64294496      -1.71866353       0.41251852      -1.58833178       0.00000000
C        0.40477628       6.99066094       2.25137374      -0.59522440       0.21574162       1.11193782      -1.34495632      -0.42723793       0.24739426       0.00000000
C        9.78295396       1.04275680       0.14945694      -0.72613983      -0.89492212      -0.19456955       0.05730789      -0.74125588       1.03996420       0.00000000
C        0.28887935       3.75590523       1.53901423      -0.27580466       0.90976249      -0.98035036      -0.66408106       1.12738502       0.62929496       0.00000000
C        1.74060276       6.51097336       6.05944744      -0.27274632      -0.24514502       0.55128962       2.55145568      -0.77915273      -0.19360274       0.00000000
C        1.75407125       8.98930925       1.31864589       0.00028960       0.55307364       0.90504697      -1.78765815      -1.38813116       0.89741683       0.00000000
C        1.11927159       2.74174447       1.18675526      -1.77629599       0.52670671      -2.36401943       2.86882889       1.51524169       0.85719493       0.00000000
C        8.02376859       9.66779437       5.04657541       0.86803958      -0.37719709      -1.09152483       1.27463342      -2.40057202      -0.38581549       0.00000000
C        8.60127226       9.49030800       8.50960203      -0.58990781       0.39657840       0.91544558      -0.25326872      -0.10483838       1.43772291       0.00000000
C        2.68782125       9.63310606       0.51969190       0.11787874      -0.05002964      -0.84595475      -0.48818680       0.44883845      -0.83602488       0.00000000
C        1.55010717       1.69255024       5.44436589       0.19523369       0.32035613      -0.28313489       0.22162485       0.04817975      -0.30318977       0.00000000
C        0.56642870       7.04541045       6.03598082       0.34071094      -1.18859922       0.85905327      -1.33783501       1.93440548       0.45647272       0.00000000
C        3.56178057       4.37371912       3.85772306       0.45231271       1.09311460      -0.17275576       0.44537414      -0.11342999       0.52801230       0.00000000
C       -1.01081908       7.60734976       9.41014993      -0.25722335      -0.39808102      -0.66026370       0.02431429       0.04682372       0.39823661       0.00000000
C        3.96536885       1.03088161       4.50754377       1.36289057      -0.24328018      -0.50047366      -2.26474222      -0.16285834       0.81259048       0.00000000
C        3.14124601       9.09558782       6.77925636       0.89652127      -0.44388776      -0.10161642      -0.09851953      -0.64216579      -0.39863865       0.00000000
C        3.58183539       2.63353139       0.59652589      -1.27016622      -0.48767808      -1.54901394       1.73228448      -0.65020826      -0.20056122       0.00000000
C        4.75516190       1.87922390       0.57737189      -0.39980469      -0.35156585       0.23768934       0.41293502      -2.11170554      -0.59721802       0.00000000
C        4.67886692       0.57192048      -0.14104529       1.09328919       0.97605106      -0.60915375       0.18170894       2.35481032       0.67835688       0.00000000
C        7.06498150       5.82860632       3.29866970      -0.17393880      -0.04290777       1.00093253      -0.50550543      -1.28017748      -1.73795425       0.00000000
C        5.67501461       8.68533344       2.45610815       0.10857883       0.52591391      -0.59265699       1.44666346      -0.66368309      -1.43103760       0.00000000
C        7.66343076       8.50014228       4.31141843       0.46876830      -0.43624116       0.25014608      -1.07246800       0.67422026       0.67215799       0.00000000
C        9.34341569       9.76272366       9.84713810      -0.30568459      -0.03794453       0.00433530      -0.22378898      -0.10776059      -1.18397014       0.00000000
C        0.80634710       1.42261860       1.09456376      -0.34874668       0.57096374       1.18515896      -0.12401481      -2.51875008      -0.60150935       0.00000000
C       -0.32840816       8.47903901      10.27916824      -0.52084345       0.38336865      -0.32130271       0.83920447      -0.36640905       1.65030579       0.00000000
C        0.55499555       8.03826092       1.43251186      -0.16566008      -0.45871072      -0.60863678       1.00538515      -0.11351241      -0.23342173       0.00000000
C        0.75498580       6.26330258       8.30583411       0.05524960      -0.64789214      -0.13100693      -1.33734585       1.23516631       0.52903735       0.00000000
C        5.93183115       1.77017000       2.99965202      -0.39789608       0.30997391       0.35580795      -0.98932345       0.41612301       0.40653275       0.00000000
C        5.58425291       9.49604987       0.06605050      -0.70959057      -1.77168069       0.06188474       0.26263138      -1.26425922       0.84512734       0.00000000
C        7.75282100       8.21307531       9.01753393      -0.02799449      -0.35521935       0.71841604      -1.92554901      -0.27591569      -0.39883857       0.00000000
C        2.67556238       1.21419301       5.22547309      -0.17165373      -0.44168073      -1.17458201       1.52160381       1.13783596      -0.96564140       0.00000000
C        5.99547412       6.68944148       3.71071529       0.28804908       0.91863139      -0.80855194       0.21851818       1.29400975       1.80106462       0.00000000
C        9.46722480       2.01679966       9.24783488       0.53699689      -0.03353804       0.46693111      -0.36019817       1.18707876      -1.24670579       0.00000000
C        3.71742071       5.57701788       4.47179480      -0.23650432       0.06687776      -0.66087838      -0.39683719      -0.08790674       0.30861473       0.00000000
C        3.00750843       6.35033017       5.46862235      -0.57704501      -0.33888438      -0.15491821       0.99729556       0.79484930      -1.24934884       0.00000000
C        1.77490563       0.35830553       1.28415135      -0.03777336       0.61518386      -0.31477219      -0.76101634       0.95148363       0.33621792       0.00000000
C        7.02364927       5.78637543       8.65982027       0.53180155       0.34674960       1.09049785       0.07671901       0.16456465      -0.46550012       0.00000000
C        3.85911634       8.84884963       5.54952238       0.36632804      -0.55618742       0.61465307       0.55033739      -1.69386452      -0.60301536       0.00000000
C        4.76461596       6.61243906       4.32928363      -0.77425592       1.07218221       0.16371473      -0.75553400      -1.67804964      -0.06773348       0.00000000
C        8.39460753       6.35038341       3.55469029       0.83599258       0.47292063      -0.00941594       0.51949475      -1.05415506       0.70841492       0.00000000
C        8.49198694       5.45207821       8.43181247       0.22048494      -0.67085394       0.28522475      -0.29839484      -0.53479994      -0.20922333       0.00000000
C        5.71550599       2.35978775       1.60979270       0.77164609      -0.20946044       0.98665215       0.60637749       0.71609737      -0.09800397       0.00000000
C        8.55920327       7.41240961       4.54477225      -1.24655616      -0.12257008       0.20833676      -0.43195013       0.12805695      -1.04582766       0.00000000
C        0.22977817       1.95699139       5.36595420      -0.10508483       0.21976680      -0.19089096       0.20610772      -0.34178103       0.00590995       0.00000000
C        6.60059795       4.70471515       2.46536783      -0.08391517       0.09705399      -0.62708516       0.51342968      -0.71379176      -0.10909291       0.00000000
C        4.55415875       2.02904921       3.70204411       0.14831513      -1.29856049      -0.28794257       1.59671526      -2.44499187       0.27545460       0.00000000
C        9.44064674       4.33940760       8.28053013       0.85853579      -0.45603593       0.61016871      -0.43720480       2.02723019      -0.15128956       0.00000000
C        7.00144937       1.48146996       3.70932640       0.59291561      -0.04603803      -0.37226327       1.09523257      -0.45549737       1.29115046       0.00000000
C        3.42142540       9.87894117       9.36107632      -0.05205728      -0.63557400       1.06288545       0.97357112       0.45768049       0.13794551       0.00000000
C        4.34239478       9.70905399       4.53262934       0.26337910      -0.05790957       0.12190905       1.07639155      -1.07137605       0.38850392       0.00000000
C        6.37705492       8.27683971      -0.21782344       0.52939553       0.34508222      -0.42256666       0.68650982      -0.35770804      -1.31325922       0.00000000
C        2.53850145       2.99959084       1.09925683       1.02298489       0.97371744       0.04755903      -2.95213571       0.21972582       0.06746022       0.00000000
C        9.42084216       3.02515169       8.52975131      -0.94669864      -0.84271828       0.22550319      -1.15392007      -2.05260643       1.05146388       0.00000000
C        8.99570312       9.64298667       7.27095717       0.35411229      -0.98840807       0.18775863      -0.00963031      -1.32589889      -0.58654561       0.00000000
C        2.17184845       4.35492035       8.10765113      -0.79408731      -0.39658702      -0.18511978      -0.10865458       0.56982478       0.17481697       0.00000000
C        2.24446802       8.35086611       7.56544047      -0.40658310       1.03151358      -0.20567173       0.39096272       0.69174097      -1.03943820       0.00000000
C        3.99952985       7.46662151       5.25897531       0.98608245       0.36493281       1.38147240      -1.36859637      -0.36089870       0.34330600       0.00000000
C        3.08499988       9.24966217       8.16057236       0.15646147       0.66379529       1.17001097       1.00147822       1.17223899       1.40103965       0.00000000
C       -0.63240278       6.55417800       8.64300213      -1.26574432       0.04532168       1.11498981       1.15347953      -0.48671318       0.29626512       0.00000000
C       -0.14560231       4.70599297       2.18872593      -0.46006218      -0.11109020      -0.14375261      -0.11570487       0.57316793       0.30715292       0.00000000
C        0.79512793       4.89050653       8.23399406       0.71753049       0.08999168       0.24110219       3.48310582      -0.52019364      -0.78627952       0.00000000
C        5.26157328       9.05363451       3.60063193       0.55868608      -0.11430389      -0.00007312      -2.38434614       2.58136683       3.11783236       0.00000000
C        6.71461814       7.17691167       8.70195216       0.94586213       0.24867123      -0.28643671       0.87642724       1.26451402       1.19036709       0.00000000
C        6.37970224       8.13176034       3.71472332       0.23116516      -0.62153343       0.50792229       0.96481827      -0.39970710      -0.48430960       0.00000000
C        3.44550100       4.41642659       8.16233582       0.14670748      -0.30016396      -0.23599878      -4.28747200      -0.66373181      -0.25085120       0.00000000
C        9.01137161       9.08625575       6.02508728       0.10604323       1.09664861      -0.36723347      -0.98792284       1.92145118       0.62014038       0.00000000
C        5.84036670       8.65201828       1.11168539      -0.19007786      -0.06108226      -0.12040523       0.50951461       0.96639249      -2.29054610       0.00000000
C        9.46107848       7.75793235       5.59011511       1.59452747       0.67386086       0.04731749      -0.13567069      -0.45087983      -1.10504661       0.00000000
C        1.44748193       7.23951563       7.39471770       0.59216699      -0.80622977      -0.37954198      -1.22974492      -2.31200314      -0.14866815       0.00000000
C        9.62834167       5.95098283       2.81174733       0.31479901       0.47324090       0.19684887       0.00746187       1.36341558      -1.93645294       0.00000000
